
Host: jackson-t-ripper

Timers On : Thu Jun  2 10:13:41 2022
Timers Off: Thu Jun  2 10:13:41 2022

Wall Time:        0.47 seconds

                                                       Time (seconds)
Module                                       User      System        Wall        Calls

--------------------------------------------------------------------------------------

**************************************************************************************
